LAMMPS 2005 data file for soft beads

   4000 atoms
   3950 bonds
   3900 angles

   1 atom types
   1 bond types
   1 angle types

     0.000000000    61.946011513 xlo xhi
     0.000000000    61.946011513 ylo yhi
     0.000000000    61.946011513 zlo zhi

Masses

1 28.053800

Atoms

      1      0   1 32.974 51.412 36.476
      2      0   1 32.153 52.620 34.357
      3      0   1 30.550 54.445 33.508
      4      0   1 30.453 56.588 32.085
      5      0   1 28.563 58.062 31.147
      6      0   1 27.621 60.390 31.708
      7      0   1 26.954 61.740 33.795
      8      0   1 27.300 64.212 34.422
      9      0   1 27.797 65.570 36.551
     10      0   1 26.278 65.722 38.623
     11      0   1 24.005 66.929 38.583
     12      0   1 22.394 66.626 36.599
     13      0   1 21.225 68.353 35.091
     14      0   1 21.869 70.567 33.947
     15      0   1 23.382 71.499 32.086
     16      0   1 23.122 72.919 29.955
     17      0   1 21.772 74.607 28.558
     18      0   1 22.586 76.977 27.974
     19      0   1 22.256 78.078 25.672
     20      0   1 22.395 80.377 24.523
     21      0   1 20.889 81.119 22.572
     22      0   1 18.897 82.703 22.950
     23      0   1 18.770 84.812 24.419
     24      0   1 20.831 85.936 25.474
     25      0   1 22.340 87.999 25.173
     26      0   1 22.713 90.281 24.042
     27      0   1 22.195 92.468 25.295
     28      0   1 20.221 93.720 26.370
     29      0   1 20.504 95.008 28.580
     30      0   1 21.074 97.512 28.746
     31      0   1 22.840 99.359 28.438
     32      0   1 22.761 101.760 27.513
     33      0   1 21.271 103.770 28.115
     34      0   1 21.745 106.085 29.135
     35      0   1 22.947 108.140 28.157
     36      0   1 22.419 110.241 26.768
     37      0   1 23.820 111.912 25.401
     38      0   1 23.999 112.192 22.849
     39      0   1 25.719 113.046 21.135
     40      0   1 26.819 115.282 20.494
     41      0   1 27.310 116.739 18.430
     42      0   1 25.854 116.945 16.318
     43      0   1 23.811 115.469 15.800
     44      0   1 21.961 115.869 14.055
     45      0   1 21.588 115.978 11.511
     46      0   1 20.358 114.251 10.052
     47      0   1 19.068 113.870 7.858
     48      0   1 19.164 115.033 5.564
     49      0   1 20.534 116.059 3.643
     50      0   1 21.573 118.412 3.547
     51      0   1 21.529 120.080 1.588
     52      0   1 22.968 121.812 0.341
     53      0   1 24.737 121.592 -1.515
     54      0   1 24.058 121.772 -3.991
     55      0   1 24.821 120.975 -6.316
     56      0   1 23.883 121.974 -8.494
     57      0   1 24.027 122.254 -11.048
     58      0   1 24.250 120.406 -12.825
     59      0   1 26.256 119.396 -14.083
     60      0   1 28.432 118.134 -13.543
     61      0   1 30.803 119.116 -13.740
     62      0   1 32.011 121.020 -12.499
     63      0   1 32.306 121.042 -9.943
     64      0   1 31.279 119.797 -7.938
     65      0   1 32.015 118.970 -5.615
     66      0   1 31.816 116.906 -4.090
     67      0   1 31.219 116.212 -1.685
     68      0   1 30.149 113.957 -1.059
     69      0   1 30.177 111.425 -1.519
     70      0   1 28.569 109.910 -2.840
     71      0   1 29.255 108.398 -4.806
     72      0   1 31.175 107.269 -6.096
     73      0   1 32.728 105.225 -6.273
     74      0   1 32.587 102.744 -6.943
     75      0   1 32.982 100.334 -6.131
     76      0   1 31.598 98.726 -4.673
     77      0   1 29.065 98.711 -4.216
     78      0   1 27.234 97.436 -5.499
     79      0   1 27.042 94.870 -5.432
     80      0   1 26.424 93.332 -7.400
     81      1   1 39.006 46.312 33.745
     82      1   1 39.911 44.216 34.933
     83      1   1 41.949 42.650 34.786
     84      1   1 43.323 41.425 36.584
     85      1   1 44.594 39.206 36.880
     86      1   1 43.875 36.945 37.877
     87      1   1 41.377 36.378 38.124
     88      1   1 39.371 35.415 36.831
     89      1   1 37.238 36.597 36.008
     90      1   1 35.454 37.772 37.444
     91      1   1 33.937 37.764 39.523
     92      1   1 32.758 39.593 40.897
     93      1   1 31.112 41.452 40.220
     94      1   1 29.409 41.907 38.346
     95      1   1 28.663 40.055 36.722
     96      1   1 28.851 37.559 36.122
     97      1   1 27.329 35.998 34.755
     98      1   1 27.884 34.129 33.075
     99      1   1 27.044 32.911 30.970
    100      1   1 25.251 31.367 29.957
    101      1   1 22.712 31.108 30.293
    102      1   1 20.546 32.449 29.928
    103      1   1 18.374 32.232 28.565
    104      1   1 15.925 33.009 28.403
    105      1   1 14.335 33.446 26.427
    106      1   1 12.204 34.877 26.236
    107      1   1 11.018 36.030 28.207
    108      1   1 10.030 38.333 28.791
    109      1   1 7.829 39.642 28.535
    110      1   1 7.261 41.726 27.135
    111      1   1 5.876 42.280 25.038
    112      1   1 5.785 44.348 23.509
    113      1   1 4.561 45.745 21.728
    114      1   1 3.016 45.868 19.673
    115      1   1 0.950 44.703 18.672
    116      1   1 0.775 42.775 16.976
    117      1   1 1.926 41.250 15.253
    118      1   1 4.012 40.833 13.805
    119      1   1 5.565 38.788 13.972
    120      1   1 7.601 37.979 12.621
    121      1   1 9.444 36.322 13.315
    122      1   1 11.767 36.746 14.338
    123      1   1 12.327 38.749 15.854
    124      1   1 14.004 39.985 17.365
    125      1   1 13.704 41.026 19.700
    126      1   1 13.038 39.574 21.718
    127      1   1 14.268 39.335 23.966
    128      1   1 16.612 40.117 24.684
    129      1   1 17.784 41.942 26.070
    130      1   1 17.273 42.681 28.481
    131      1   1 18.718 43.098 30.570
    132      1   1 19.349 41.534 32.514
    133      1   1 21.224 41.530 34.277
    134      1   1 23.719 40.915 34.135
    135      1   1 25.546 39.466 33.046
    136      1   1 27.609 39.621 31.515
    137      1   1 28.878 38.106 29.867
    138      1   1 30.594 37.841 27.967
    139      1   1 32.417 36.024 27.992
    140      1   1 32.969 34.360 26.109
    141      1   1 32.168 34.774 23.698
    142      1   1 29.936 35.213 22.493
    143      1   1 28.817 34.440 20.308
    144      1   1 26.683 33.691 19.080
    145      1   1 25.323 31.507 19.115
    146      1   1 23.608 30.488 17.489
    147      1   1 21.583 28.905 17.354
    148      1   1 20.685 26.983 18.811
    149      1   1 21.292 24.562 19.439
    150      1   1 23.613 23.461 19.281
    151      1   1 25.534 24.426 17.865
    152      1   1 25.770 26.695 16.672
    153      1   1 26.912 28.671 17.861
    154      1   1 27.557 29.619 20.165
    155      1   1 29.144 29.097 22.122
    156      1   1 31.549 28.185 22.218
    157      1   1 33.627 28.333 23.728
    158      1   1 35.186 30.378 23.609
    159      1   1 35.305 32.947 23.699
    160      1   1 33.803 34.847 24.569
    161      2   1 2.888 45.003 16.977
    162      2   1 5.140 45.379 15.789
    163      2   1 7.309 46.760 15.903
    164      2   1 9.800 46.217 16.259
    165      2   1 11.377 45.090 17.951
    166      2   1 13.386 43.578 17.398
    167      2   1 15.615 44.490 16.490
    168      2   1 17.559 43.192 15.412
    169      2   1 19.836 44.214 14.785
    170      2   1 20.217 46.560 13.799
    171      2   1 18.316 48.255 13.425
    172      2   1 18.376 50.826 13.521
    173      2   1 19.615 52.159 15.341
    174      2   1 18.905 54.253 16.657
    175      2   1 16.796 55.479 17.476
    176      2   1 16.052 56.492 19.722
    177      2   1 17.173 57.621 21.745
    178      2   1 18.212 59.822 22.581
    179      2   1 20.580 60.830 22.531
    180      2   1 21.717 62.525 20.963
    181      2   1 23.462 64.257 21.723
    182      2   1 23.740 65.987 23.608
    183      2   1 22.191 67.910 24.336
    184      2   1 19.619 67.979 24.331
    185      2   1 17.661 68.843 25.760
    186      2   1 16.818 69.631 28.061
    187      2   1 14.996 69.124 29.806
    188      2   1 15.284 68.853 32.350
    189      2   1 15.784 67.064 34.131
    190      2   1 15.487 64.531 34.472
    191      2   1 16.136 62.702 36.163
    192      2   1 14.823 62.338 38.346
    193      2   1 13.422 63.903 39.834
    194      2   1 11.543 63.179 41.436
    195      2   1 9.749 64.846 42.227
    196      2   1 7.367 65.114 41.288
    197      2   1 5.038 64.556 42.229
    198      2   1 3.369 62.851 41.264
    199      2   1 1.526 61.690 42.635
    200      2   1 -0.739 60.705 41.912
    201      2   1 -1.382 59.888 39.558
    202      2   1 -1.802 57.386 39.125
    203      2   1 -2.216 55.283 40.549
    204      2   1 -0.414 53.988 41.853
    205      2   1 0.948 54.888 43.843
    206      2   1 0.630 56.191 46.039
    207      2   1 -1.020 55.895 47.992
    208      2   1 -2.780 54.413 49.146
    209      2   1 -4.816 53.486 47.874
    210      2   1 -5.703 51.819 46.126
    211      2   1 -7.485 50.000 45.752
    212      2   1 -9.870 50.200 46.698
    213      2   1 -11.009 48.171 47.797
    214      2   1 -10.336 46.311 49.444
    215      2   1 -11.404 45.209 51.510
    216      2   1 -12.751 45.533 53.679
    217      2   1 -14.165 47.615 54.217
    218      2   1 -13.731 49.260 56.148
    219      2   1 -15.479 50.270 57.744
    220      2   1 -15.367 50.563 60.299
    221      2   1 -17.311 51.116 61.893
    222      2   1 -18.745 53.108 62.666
    223      2   1 -19.922 54.072 64.741
    224      2   1 -19.355 56.275 65.944
    225      2   1 -20.265 57.174 68.177
    226      2   1 -20.317 59.371 69.518
    227      2   1 -19.031 61.592 69.325
    228      2   1 -17.753 62.638 71.299
    229      2   1 -17.981 65.097 72.022
    230      2   1 -20.094 66.248 72.936
    231      2   1 -21.728 67.641 71.518
    232      2   1 -22.750 67.497 69.160
    233      2   1 -22.762 65.636 67.383
    234      2   1 -23.089 66.019 64.859
    235      2   1 -22.984 64.396 62.865
    236      2   1 -21.317 63.645 61.053
    237      2   1 -19.705 61.652 61.283
    238      2   1 -19.661 59.253 60.351
    239      2   1 -21.578 57.543 60.498
    240      2   1 -23.600 57.814 62.068
    241      3   1 35.247 29.504 18.505
    242      3   1 33.810 27.612 17.516
    243      3   1 34.079 25.527 16.031
    244      3   1 35.354 24.981 13.864
    245      3   1 37.267 25.873 12.391
    246      3   1 36.961 26.047 9.842
    247      3   1 36.034 24.584 7.938
    248      3   1 33.651 23.616 8.008
    249      3   1 31.447 24.438 9.052
    250      3   1 29.703 24.035 10.901
    251      3   1 27.284 24.651 11.529
    252      3   1 25.549 24.074 13.339
    253      3   1 23.043 23.499 13.220
    254      3   1 21.553 22.840 11.228
    255      3   1 19.750 24.069 9.863
    256      3   1 19.741 26.639 9.737
    257      3   1 17.562 28.006 9.640
    258      3   1 15.986 28.122 7.609
    259      3   1 13.488 28.580 7.193
    260      3   1 11.656 27.020 8.108
    261      3   1 9.302 27.330 9.101
    262      3   1 8.050 28.016 11.242
    263      3   1 8.387 28.738 13.689
    264      3   1 8.979 31.036 14.685
    265      3   1 7.989 33.362 14.201
    266      3   1 7.189 34.898 12.297
    267      3   1 8.555 36.018 10.425
    268      3   1 10.254 34.972 8.800
    269      3   1 10.899 35.561 6.379
    270      3   1 12.480 37.524 5.856
    271      3   1 12.599 39.076 3.806
    272      3   1 11.235 39.337 1.639
    273      3   1 8.975 38.762 0.552
    274      3   1 6.822 40.140 0.850
    275      3   1 5.102 39.871 2.745
    276      3   1 2.670 39.034 2.850
    277      3   1 0.802 39.533 4.548
    278      3   1 0.250 38.060 6.585
    279      3   1 -1.725 36.452 6.957
    280      3   1 -4.031 36.204 5.841
    281      3   1 -4.970 36.384 3.452
    282      3   1 -4.268 35.031 1.379
    283      3   1 -4.797 32.669 0.504
    284      3   1 -3.456 30.503 0.870
    285      3   1 -2.536 29.710 3.139
    286      3   1 -0.505 28.668 4.328
    287      3   1 1.595 29.664 5.433
    288      3   1 3.532 28.553 6.712
    289      3   1 5.595 29.901 7.454
    290      3   1 7.784 31.080 6.791
    291      3   1 7.882 33.136 5.244
    292      3   1 8.953 33.221 2.906
    293      3   1 9.739 35.150 1.394
    294      3   1 8.207 36.921 0.327
    295      3   1 7.067 38.714 1.779
    296      3   1 6.246 41.144 1.997
    297      3   1 4.032 42.353 1.484
    298      3   1 2.525 43.957 2.818
    299      3   1 0.987 45.693 1.702
    300      3   1 0.335 48.170 1.447
    301      3   1 1.845 50.218 1.059
    302      3   1 3.437 50.791 -0.880
    303      3   1 2.673 50.966 -3.332
    304      3   1 4.290 51.861 -5.123
    305      3   1 4.311 52.412 -7.637
    306      3   1 2.462 52.071 -9.394
    307      3   1 1.621 52.464 -11.795
    308      3   1 -0.060 51.020 -13.104
    309      3   1 -1.348 51.740 -15.212
    310      3   1 -3.397 53.245 -15.614
    311      3   1 -4.372 55.524 -14.922
    312      3   1 -3.262 56.888 -13.043
    313      3   1 -1.745 58.835 -12.314
    314      3   1 -0.387 59.268 -10.171
    315      3   1 1.157 61.035 -9.114
    316      3   1 3.250 62.483 -9.497
    317      3   1 5.296 62.643 -7.944
    318      3   1 7.212 64.307 -7.515
    319      3   1 7.760 66.297 -5.978
    320      3   1 9.320 68.332 -6.203
    321      4   1 44.285 33.186 43.372
    322      4   1 46.041 33.484 45.231
    323      4   1 47.680 35.448 45.507
    324      4   1 48.718 36.167 47.749
    325      4   1 50.898 36.584 49.052
    326      4   1 53.234 37.444 48.397
    327      4   1 55.412 37.307 49.761
    328      4   1 55.600 35.913 51.916
    329      4   1 57.206 34.407 53.249
    330      4   1 59.599 33.466 53.126
    331      4   1 61.922 34.461 52.640
    332      4   1 63.489 35.214 50.742
    333      4   1 65.185 34.012 49.225
    334      4   1 67.326 34.358 47.840
    335      4   1 68.910 32.619 46.795
    336      4   1 68.845 31.435 44.510
    337      4   1 67.011 30.902 42.784
    338      4   1 65.461 29.088 41.821
    339      4   1 62.889 28.995 41.780
    340      4   1 60.904 27.477 41.167
    341      4   1 58.703 27.533 39.835
    342      4   1 56.279 28.242 40.329
    343      4   1 54.990 29.456 42.198
    344      4   1 54.129 28.201 44.274
    345      4   1 55.009 25.894 44.997
    346      4   1 56.188 24.758 46.983
    347      4   1 58.634 24.959 47.758
    348      4   1 59.950 24.418 49.903
    349      4   1 61.195 22.532 51.134
    350      4   1 63.562 21.527 51.034
    351      4   1 65.518 20.673 49.596
    352      4   1 65.918 18.286 48.719
    353      4   1 67.362 16.968 47.046
    354      4   1 68.454 16.965 44.715
    355      4   1 68.528 15.799 42.422
    356      4   1 70.004 14.246 40.996
    357      4   1 71.617 12.257 41.245
    358      4   1 71.113 9.919 42.196
    359      4   1 71.124 8.678 44.451
    360      4   1 73.042 9.017 46.133
    361      4   1 74.787 10.599 47.169
    362      4   1 74.531 12.707 48.623
    363      4   1 76.263 14.594 48.879
    364      4   1 77.154 16.451 50.421
    365      4   1 79.365 17.762 50.551
    366      4   1 80.351 18.678 52.745
    367      4   1 79.966 20.704 54.285
    368      4   1 79.308 21.094 56.742
    369      4   1 78.730 23.205 58.096
    370      4   1 80.252 24.968 59.191
    371      4   1 80.883 26.331 61.281
    372      4   1 80.316 28.744 61.976
    373      4   1 81.957 30.726 62.033
    374      4   1 84.009 31.104 63.539
    375      4   1 86.530 31.160 63.022
    376      4   1 88.432 32.859 63.369
    377      4   1 90.169 33.955 61.820
    378      4   1 92.669 34.160 62.394
    379      4   1 93.779 32.711 64.209
    380      4   1 92.950 30.433 65.073
    381      4   1 93.096 28.599 66.873
    382      4   1 93.401 26.080 67.302
    383      4   1 92.715 23.905 66.109
    384      4   1 94.392 22.040 65.534
    385      4   1 96.609 21.587 64.306
    386      4   1 97.869 22.962 62.533
    387      4   1 97.597 24.756 60.708
    388      4   1 99.207 26.240 59.355
    389      4   1 100.752 26.343 57.299
    390      4   1 103.004 27.296 56.498
    391      4   1 104.117 29.090 55.024
    392      4   1 106.012 28.857 53.299
    393      4   1 106.952 27.644 51.233
    394      4   1 108.513 25.611 51.459
    395      4   1 108.848 23.974 49.502
    396      4   1 108.659 21.437 49.891
    397      4   1 107.192 19.819 51.253
    398      4   1 107.854 18.162 53.107
    399      4   1 109.312 18.943 55.079
    400      4   1 110.485 17.355 56.729
    401      5   1 60.609 39.427 30.574
    402      5   1 62.933 39.669 31.654
    403      5   1 64.688 41.471 31.111
    404      5   1 64.640 43.731 32.341
    405      5   1 64.054 46.108 31.548
    406      5   1 65.109 48.365 32.193
    407      5   1 66.759 49.926 30.984
    408      5   1 68.692 51.588 31.336
    409      5   1 69.431 53.295 29.557
    410      5   1 68.251 55.304 28.463
    411      5   1 66.056 56.243 29.423
    412      5   1 65.694 58.699 30.101
    413      5   1 66.441 60.569 31.703
    414      5   1 64.908 61.818 33.351
    415      5   1 65.809 63.440 35.135
    416      5   1 65.281 64.675 37.330
    417      5   1 62.985 64.562 38.489
    418      5   1 61.272 66.466 38.231
    419      5   1 59.882 67.064 36.150
    420      5   1 57.564 67.244 35.047
    421      5   1 55.661 68.949 35.356
    422      5   1 53.480 69.078 36.717
    423      5   1 51.893 70.866 37.670
    424      5   1 51.671 72.457 39.680
    425      5   1 51.882 72.553 42.243
    426      5   1 51.233 70.646 43.845
    427      5   1 52.761 69.986 45.809
    428      5   1 54.387 70.904 47.579
    429      5   1 56.101 72.786 47.200
    430      5   1 58.070 73.253 48.791
    431      5   1 59.553 75.271 49.385
    432      5   1 61.875 75.938 48.497
    433      5   1 62.887 76.968 46.367
    434      5   1 62.400 76.304 43.929
    435      5   1 60.341 75.876 42.445
    436      5   1 59.901 73.582 41.365
    437      5   1 59.563 71.160 42.168
    438      5   1 58.933 68.990 40.937
    439      5   1 56.894 68.274 39.540
    440      5   1 54.770 67.251 40.572
    441      5   1 54.384 65.450 42.369
    442      5   1 52.609 64.038 43.585
    443      5   1 50.395 62.895 42.941
    444      5   1 49.946 61.186 41.070
    445      5   1 48.503 61.530 38.966
    446      5   1 47.074 63.640 38.610
    447      5   1 45.923 64.246 36.389
    448      5   1 46.456 66.356 35.015
    449      5   1 45.495 67.510 32.925
    450      5   1 43.330 67.377 31.540
    451      5   1 41.931 68.707 29.839
    452      5   1 42.088 69.804 27.516
    453      5   1 40.693 69.624 25.361
    454      5   1 38.280 68.930 24.794
    455      5   1 36.935 66.830 24.157
    456      5   1 35.282 65.719 25.787
    457      5   1 33.697 63.763 25.255
    458      5   1 31.704 62.301 25.973
    459      5   1 29.433 61.658 24.947
    460      5   1 27.683 59.771 24.930
    461      5   1 25.290 59.685 25.874
    462      5   1 23.544 58.566 27.398
    463      5   1 21.207 57.541 27.731
    464      5   1 20.140 56.119 29.592
    465      5   1 17.691 55.329 29.605
    466      5   1 16.149 55.113 31.655
    467      5   1 14.710 56.475 33.296
    468      5   1 12.383 55.664 34.041
    469      5   1 10.131 55.413 32.822
    470      5   1 9.164 56.915 30.969
    471      5   1 10.007 58.241 28.931
    472      5   1 11.774 60.103 29.108
    473      5   1 14.021 60.701 28.004
    474      5   1 15.853 62.289 28.869
    475      5   1 16.913 63.402 30.933
    476      5   1 19.044 62.949 32.303
    477      5   1 20.402 61.406 33.851
    478      5   1 22.665 61.590 35.063
    479      5   1 24.571 60.205 36.098
    480      5   1 25.396 57.780 36.345
    481      6   1 30.177 24.708 49.863
    482      6   1 28.572 24.484 47.864
    483      6   1 26.432 25.878 47.556
    484      6   1 24.213 25.385 46.348
    485      6   1 23.243 26.765 44.405
    486      6   1 23.528 28.717 42.752
    487      6   1 22.832 31.175 43.069
    488      6   1 20.690 32.321 43.918
    489      6   1 18.940 34.043 43.147
    490      6   1 16.378 34.277 43.235
    491      6   1 14.379 34.690 44.802
    492      6   1 11.947 35.437 44.408
    493      6   1 10.190 37.315 44.469
    494      6   1 9.871 39.013 42.561
    495      6   1 11.195 41.083 41.796
    496      6   1 11.313 43.123 40.232
    497      6   1 9.919 44.873 38.959
    498      6   1 8.741 46.944 39.933
    499      6   1 6.581 48.081 39.118
    500      6   1 4.160 47.829 38.280
    501      6   1 3.098 49.642 36.794
    502      6   1 3.410 50.975 34.614
    503      6   1 3.090 53.474 34.090
    504      6   1 4.242 55.414 32.852
    505      6   1 5.982 55.124 30.978
    506      6   1 7.383 56.617 29.419
    507      6   1 9.457 58.020 30.015
    508      6   1 11.069 59.229 28.414
    509      6   1 13.219 58.684 27.108
    510      6   1 14.568 56.943 25.778
    511      6   1 17.098 56.593 25.457
    512      6   1 19.182 55.267 26.178
    513      6   1 21.206 56.386 27.306
    514      6   1 23.150 57.815 26.410
    515      6   1 23.685 59.986 25.136
    516      6   1 25.094 60.025 22.983
    517      6   1 26.894 61.300 21.657
    518      6   1 27.490 63.517 20.495
    519      6   1 29.091 65.221 21.571
    520      6   1 28.256 66.898 23.336
    521      6   1 27.510 69.347 23.602
    522      6   1 25.735 70.303 25.202
    523      6   1 25.685 70.544 27.763
    524      6   1 25.638 69.367 30.052
    525      6   1 24.381 67.482 31.273
    526      6   1 22.719 67.277 33.227
    527      6   1 21.977 69.016 34.972
    528      6   1 20.688 69.308 37.181
    529      6   1 18.491 69.084 38.503
    530      6   1 17.489 68.681 40.839
    531      6   1 18.622 67.046 42.472
    532      6   1 20.707 65.597 42.051
    533      6   1 21.722 63.567 43.264
    534      6   1 22.802 62.782 45.464
    535      6   1 24.504 60.977 46.150
    536      6   1 26.348 60.228 47.782
    537      6   1 27.221 61.639 49.749
    538      6   1 26.284 62.118 52.097
    539      6   1 24.418 61.223 53.629
    540      6   1 22.079 60.155 53.732
    541      6   1 20.178 60.765 55.357
    542      6   1 19.143 60.064 57.606
    543      6   1 18.879 61.613 59.645
    544      6   1 17.295 62.011 61.634
    545      6   1 16.308 63.693 63.313
    546      6   1 14.372 65.371 63.558
    547      6   1 12.330 66.202 62.230
    548      6   1 10.732 64.716 60.866
    549      6   1 8.388 65.567 60.230
    550      6   1 6.177 66.278 61.338
    551      6   1 4.105 64.751 61.351
    552      6   1 2.152 64.572 59.685
    553      6   1 -0.406 64.460 59.429
    554      6   1 -1.873 63.135 57.780
    555      6   1 -1.406 61.291 56.046
    556      6   1 -2.957 59.518 55.011
    557      6   1 -4.540 59.526 52.982
    558      6   1 -4.989 57.872 51.062
    559      6   1 -3.858 56.307 49.360
    560      6   1 -4.161 54.957 47.190
    561      7   1 41.668 56.791 52.161
    562      7   1 43.642 55.837 50.813
    563      7   1 46.173 55.996 50.378
    564      7   1 48.184 56.998 51.633
    565      7   1 48.409 59.269 52.823
    566      7   1 49.876 60.752 54.330
    567      7   1 51.455 62.619 53.527
    568      7   1 53.170 63.878 54.976
    569      7   1 53.441 65.932 56.503
    570      7   1 52.998 68.436 56.898
    571      7   1 51.115 69.577 58.231
    572      7   1 49.331 68.879 59.950
    573      7   1 47.737 67.022 60.749
    574      7   1 45.903 66.452 62.462
    575      7   1 45.349 66.421 64.975
    576      7   1 46.365 65.533 67.167
    577      7   1 45.880 63.314 68.377
    578      7   1 46.650 60.882 68.035
    579      7   1 46.514 58.949 66.341
    580      7   1 46.313 59.322 63.803
    581      7   1 44.569 60.905 62.766
    582      7   1 42.761 62.569 63.533
    583      7   1 43.060 64.618 65.061
    584      7   1 44.906 66.142 66.008
    585      7   1 45.162 67.169 68.353
    586      7   1 46.565 68.618 69.952
    587      7   1 46.870 70.962 70.968
    588      7   1 48.388 73.000 70.557
    589      7   1 49.397 74.964 71.878
    590      7   1 51.040 76.837 71.231
    591      7   1 51.559 79.330 71.605
    592      7   1 53.748 80.443 72.375
    593      7   1 54.858 82.753 72.608
    594      7   1 54.891 84.757 70.994
    595      7   1 53.258 86.739 70.824
    596      7   1 51.478 87.118 72.644
    597      7   1 50.205 88.777 74.144
    598      7   1 48.728 90.807 73.579
    599      7   1 48.276 92.689 75.275
    600      7   1 46.798 94.639 76.072
    601      7   1 44.405 94.433 76.997
    602      7   1 42.744 92.706 76.058
    603      7   1 41.127 90.756 76.513
    604      7   1 38.745 90.424 75.599
    605      7   1 36.949 88.735 74.860
    606      7   1 36.775 86.265 74.158
    607      7   1 37.874 84.333 75.455
    608      7   1 39.578 82.405 75.392
    609      7   1 40.303 80.496 73.825
    610      7   1 41.555 80.342 71.582
    611      7   1 44.028 79.942 70.992
    612      7   1 45.727 78.159 71.739
    613      7   1 46.818 76.429 70.177
    614      7   1 48.811 74.885 69.660
    615      7   1 50.204 72.810 70.273
    616      7   1 50.025 70.891 71.978
    617      7   1 47.832 69.777 72.737
    618      7   1 45.357 69.330 72.194
    619      7   1 43.739 67.491 71.402
    620      7   1 44.174 65.501 69.829
    621      7   1 44.767 65.105 67.356
    622      7   1 43.425 63.512 65.844
    623      7   1 40.853 63.447 65.868
    624      7   1 38.688 62.055 65.903
    625      7   1 38.012 59.772 66.879
    626      7   1 38.147 59.108 69.362
    627      7   1 38.865 60.779 71.183
    628      7   1 40.788 62.467 70.909
    629      7   1 41.858 64.183 72.501
    630      7   1 43.098 66.429 72.704
    631      7   1 45.427 66.546 73.793
    632      7   1 47.075 65.594 75.526
    633      7   1 48.473 63.473 75.932
    634      7   1 47.355 61.306 76.757
    635      7   1 48.698 59.187 77.331
    636      7   1 48.311 56.901 78.448
    637      7   1 46.571 55.727 79.938
    638      7   1 46.650 53.178 80.284
    639      7   1 48.076 52.130 82.153
    640      7   1 47.751 50.380 84.011
    641      8   1 60.088 37.162 23.518
    642      8   1 59.608 39.682 23.305
    643      8   1 60.692 41.726 22.177
    644      8   1 60.165 44.243 22.288
    645      8   1 60.003 46.156 24.002
    646      8   1 58.500 47.674 25.438
    647      8   1 58.966 49.807 26.801
    648      8   1 57.530 51.763 27.658
    649      8   1 57.931 53.601 29.414
    650      8   1 59.865 55.080 30.249
    651      8   1 61.882 54.203 31.586
    652      8   1 62.198 53.400 34.010
    653      8   1 60.680 52.163 35.680
    654      8   1 58.959 53.453 37.093
    655      8   1 57.716 53.045 39.309
    656      8   1 56.749 54.029 41.482
    657      8   1 56.763 53.794 44.044
    658      8   1 57.543 55.523 45.784
    659      8   1 56.140 57.420 46.812
    660      8   1 55.607 59.686 45.714
    661      8   1 56.343 62.107 46.183
    662      8   1 57.772 63.827 44.908
    663      8   1 57.775 65.722 43.167
    664      8   1 57.252 66.536 40.782
    665      8   1 58.724 67.751 39.055
    666      8   1 59.106 70.180 38.297
    667      8   1 61.383 71.296 37.859
    668      8   1 62.283 72.701 35.899
    669      8   1 61.364 74.350 34.150
    670      8   1 62.671 75.518 32.265
    671      8   1 64.436 74.768 30.548
    672      8   1 66.680 75.708 29.710
    673      8   1 68.940 74.640 30.321
    674      8   1 69.343 72.236 31.148
    675      8   1 70.997 70.695 32.379
    676      8   1 71.429 68.187 31.994
    677      8   1 71.083 66.618 29.984
    678      8   1 69.431 64.937 28.951
    679      8   1 67.148 65.617 27.977
    680      8   1 66.083 67.375 26.428
    681      8   1 64.193 68.891 27.294
    682      8   1 63.507 71.287 26.653
    683      8   1 61.381 72.734 26.559
    684      8   1 59.639 73.140 24.708
    685      8   1 57.146 73.770 24.798
    686      8   1 55.277 74.394 23.143
    687      8   1 54.266 72.676 21.514
    688      8   1 55.603 71.379 19.739
    689      8   1 56.590 72.589 17.692
    690      8   1 58.896 73.723 17.564
    691      8   1 61.252 72.738 17.888
    692      8   1 62.892 71.568 16.287
    693      8   1 64.350 72.727 14.510
    694      8   1 66.910 72.861 14.287
    695      8   1 68.437 71.636 12.616
    696      8   1 70.674 71.640 11.344
    697      8   1 72.310 73.627 11.314
    698      8   1 74.776 73.268 10.668
    699      8   1 76.353 73.586 8.660
    700      8   1 78.219 75.200 7.926
    701      8   1 79.846 75.118 5.934
    702      8   1 80.064 73.944 3.654
    703      8   1 79.982 71.632 2.526
    704      8   1 80.309 71.023 0.047
    705      8   1 81.767 71.756 -1.943
    706      8   1 83.127 70.236 -3.512
    707      8   1 82.776 68.191 -5.035
    708      8   1 84.587 66.828 -6.254
    709      8   1 86.685 65.830 -5.147
    710      8   1 88.362 63.880 -5.059
    711      8   1 90.731 63.173 -5.773
    712      8   1 91.464 61.055 -7.039
    713      8   1 89.997 58.956 -7.293
    714      8   1 88.349 58.422 -9.197
    715      8   1 87.890 56.887 -11.211
    716      8   1 85.957 57.117 -12.894
    717      8   1 84.044 58.833 -12.744
    718      8   1 81.504 58.421 -12.697
    719      8   1 80.273 57.561 -14.786
    720      8   1 80.603 55.184 -15.717
    721      9   1 5.679 39.323 22.981
    722      9   1 7.722 39.670 24.507
    723      9   1 8.192 39.029 26.955
    724      9   1 8.809 36.899 28.261
    725      9   1 8.697 36.793 30.830
    726      9   1 10.320 36.080 32.695
    727      9   1 11.288 37.776 34.371
    728      9   1 13.824 38.197 34.492
    729      9   1 15.644 39.091 36.077
    730      9   1 18.059 39.981 36.060
    731      9   1 20.117 40.306 37.570
    732      9   1 21.420 41.910 39.104
    733      9   1 21.513 41.783 41.673
    734      9   1 20.999 43.485 43.534
    735      9   1 22.594 44.390 45.340
    736      9   1 22.063 46.394 46.865
    737      9   1 20.369 48.196 47.575
    738      9   1 20.175 50.762 47.535
    739      9   1 18.519 52.139 46.126
    740      9   1 16.082 52.449 45.360
    741      9   1 14.351 53.483 46.959
    742      9   1 12.104 53.048 48.137
    743      9   1 9.724 54.026 48.200
    744      9   1 8.540 56.300 47.972