ITEM: TIMESTEP
100000
ITEM: NUMBER OF ATOMS
4000
ITEM: BOX BOUNDS pp pp pp
-4.3057209481723646e-02 6.1989068722481477e+01
-4.3057209481723646e-02 6.1989068722481477e+01
-4.3057209481723646e-02 6.1989068722481477e+01
ITEM: ATOMS id mol type x y z 
1 0 1 29.4749 58.5382 30.6088 
2 0 1 29.2852 56.9672 32.6765 
3 0 1 28.1294 57.4006 34.917 
4 0 1 25.804 58.4168 35.6009 
5 0 1 24.5009 60.421 34.716 
6 0 1 22.4982 61.6177 33.9007 
7 0 1 20.345 0.878785 33.2624 
8 0 1 17.998 1.92113 32.9156 
9 0 1 17.2364 4.02619 31.6993 
10 0 1 18.3778 6.33539 31.0974 
11 0 1 19.1708 8.67472 31.1385 
12 0 1 19.0515 11.1871 30.4963 
13 0 1 19.3409 13.6521 30.0933 
14 0 1 19.5462 16.0804 29.1059 
15 0 1 18.9229 18.3182 28.0954 
16 0 1 18.0258 20.4218 26.8537 
17 0 1 16.9106 22.3004 25.6024 
18 0 1 18.2417 24.307 24.7733 
19 0 1 19.9116 26.2692 24.5405 
20 0 1 21.1492 28.3621 23.8894 
21 0 1 22.7959 30.2326 24.4269 
22 0 1 24.5011 32.0123 25.2542 
23 0 1 23.8977 34.4773 25.7325 
24 0 1 23.2303 36.9702 25.8193 
25 0 1 21.8737 39.0942 25.1348 
26 0 1 21.4513 41.3424 23.8394 
27 0 1 21.1754 43.7996 23.0071 
28 0 1 20.5862 46.129 22.1375 
29 0 1 20.3199 48.3274 20.8638 
30 0 1 22.1112 49.7407 19.6664 
31 0 1 24.2097 51.0442 18.8243 
32 0 1 26.3387 52.2402 17.9738 
33 0 1 28.5747 53.2315 17.203 
34 0 1 30.4893 54.8673 16.8006 
35 0 1 31.518 55.5668 14.5334 
36 0 1 32.5737 55.3465 12.1753 
37 0 1 33.0601 53.9586 10.1197 
38 0 1 31.358 52.2604 9.26889 
39 0 1 28.9673 51.2622 8.90767 
40 0 1 26.5981 51.8817 8.92919 
41 0 1 24.0547 51.8498 9.65727 
42 0 1 21.4849 51.8245 9.91905 
43 0 1 19.8626 53.7981 9.52334 
44 0 1 18.0792 55.1399 8.42319 
45 0 1 16.3041 56.5125 7.19841 
46 0 1 14.4831 55.8094 5.5634 
47 0 1 12.4438 54.6243 4.59798 
48 0 1 13.1502 52.5932 3.21945 
49 0 1 14.6437 51.382 1.62811 
50 0 1 16.0229 50.2635 61.8798 
51 0 1 17.3572 51.3727 60.0634 
52 0 1 18.8558 53.2414 59.1018 
53 0 1 20.9065 54.2522 57.8615 
54 0 1 21.8107 53.5448 55.6929 
55 0 1 22.4929 52.1693 53.6224 
56 0 1 24.227 50.9859 52.1536 
57 0 1 25.773 50.9555 50.0898 
58 0 1 28.1246 51.3769 48.9056 
59 0 1 29.9361 52.8965 49.9137 
60 0 1 31.0424 54.4184 51.5468 
61 0 1 32.3395 56.3751 52.6822 
62 0 1 33.5691 58.1481 53.8378 
63 0 1 34.9253 59.9695 55.0561 
64 0 1 36.0837 60.1475 57.326 
65 0 1 37.7164 60.2063 59.3279 
66 0 1 39.6001 60.4441 61.1105 
67 0 1 39.9122 58.6388 0.992078 
68 0 1 39.9551 57.0162 2.92545 
69 0 1 39.2878 54.64 3.69259 
70 0 1 38.2296 52.3373 3.43698 
71 0 1 36.4111 50.8038 2.50986 
72 0 1 34.2861 49.4912 1.85873 
73 0 1 32.9574 48.6484 -0.0676249 
74 0 1 32.0635 47.2375 60.0604 
75 0 1 32.2831 47.9591 57.5817 
76 0 1 32.1035 47.7865 55.0259 
77 0 1 31.9963 48.89 52.6524 
78 0 1 32.2964 48.7424 50.1244 
79 0 1 33.1466 49.1107 47.749 
80 0 1 33.9143 49.226 45.3459 
81 1 1 53.8448 49.3596 38.4681 
82 1 1 52.3672 47.5508 37.4386 
83 1 1 51.8516 45.7333 35.6247 
84 1 1 51.3411 43.9336 33.8634 
85 1 1 50.4376 41.9529 32.2021 
86 1 1 48.3084 40.5609 32.58 
87 1 1 46.7866 40.945 34.5048 
88 1 1 44.6827 40.565 35.9078 
89 1 1 43.0881 41.021 37.7813 
90 1 1 41.8481 43.2002 38.0876 
91 1 1 40.6113 45.4409 38.6552 
92 1 1 38.2036 45.0291 38.2984 
93 1 1 36.1844 43.5449 37.7535 
94 1 1 34.285 41.9855 38.1717 
95 1 1 32.597 40.1451 37.864 
96 1 1 30.8621 38.281 37.3555 
97 1 1 29.2867 36.8002 35.9728 
98 1 1 29.0612 34.4615 34.8089 
99 1 1 26.7542 33.4432 34.4663 
100 1 1 25.6144 32.9612 32.2165 
101 1 1 24.0979 32.613 30.2191 
102 1 1 22.5539 30.5968 29.8097 
103 1 1 20.7873 29.1285 28.6557 
104 1 1 18.7571 27.5512 28.402 
105 1 1 16.2291 27.1321 27.9277 
106 1 1 13.6559 27.1644 27.845 
107 1 1 11.3323 28.0071 28.2784 
108 1 1 8.8329 28.5854 28.3422 
109 1 1 6.34711 29.2236 28.1068 
110 1 1 5.2765 31.1999 26.8361 
111 1 1 4.84413 33.5888 26.0033 
112 1 1 4.57754 35.9867 25.344 
113 1 1 4.24786 38.3625 24.6475 
114 1 1 2.10297 39.0895 23.3416 
115 1 1 62.0644 39.8962 22.1117 
116 1 1 59.4912 39.7856 21.5157 
117 1 1 59.2565 37.4753 20.378 
118 1 1 59.2681 35.2784 19.1269 
119 1 1 59.9678 33.5192 17.3301 
120 1 1 60.7933 31.9975 15.4502 
121 1 1 1.22224 31.2448 14.9851 
122 1 1 3.3327 32.3378 15.7499 
123 1 1 5.3186 33.9274 16.423 
124 1 1 7.47881 35.2497 17.191 
125 1 1 9.46481 36.658 17.9167 
126 1 1 11.5869 38.0403 18.6284 
127 1 1 12.7189 39.3059 20.6317 
128 1 1 14.6178 40.2101 21.9786 
129 1 1 15.9392 40.436 24.1447 
130 1 1 17.1629 40.952 26.3199 
131 1 1 18.6244 41.028 28.4915 
132 1 1 20.9632 41.0691 29.6947 
133 1 1 23.4939 41.0546 29.902 
134 1 1 25.9652 41.8387 29.8347 
135 1 1 28.5076 42.4293 29.4433 
136 1 1 30.9274 41.972 28.6669 
137 1 1 31.9707 40.2471 26.997 
138 1 1 32.5844 38.3622 25.3425 
139 1 1 31.8653 35.9384 25.1666 
140 1 1 30.0883 34.3346 24.23 
141 1 1 28.4903 33.4617 22.3677 
142 1 1 27.0297 33.0338 20.2847 
143 1 1 25.3026 32.8155 18.4201 
144 1 1 23.8317 31.7663 16.6437 
145 1 1 22.6126 30.8673 14.4326 
146 1 1 21.134 29.2066 13.2903 
147 1 1 19.133 27.5498 13.1358 
148 1 1 18.5461 26.7539 15.4024 
149 1 1 17.9386 26.0226 17.8536 
150 1 1 18.1046 23.8535 19.1766 
151 1 1 20.0369 23.279 20.7601 
152 1 1 22.074 22.8956 22.3191 
153 1 1 23.9673 24.664 22.4074 
154 1 1 26.0163 26.3269 22.4643 
155 1 1 28.1533 27.6371 22.1919 
156 1 1 30.3874 28.6448 23.1179 
157 1 1 32.6303 28.4836 24.4523 
158 1 1 34.6827 27.4514 25.5135 
159 1 1 36.5924 26.029 26.5068 
160 1 1 37.4673 24.2386 28.1594 
161 2 1 59.2981 36.9035 13.5794 
162 2 1 61.8358 36.9543 13.9248 
163 2 1 2.3387 37.1312 13.8852 
164 2 1 4.9111 37.431 13.7845 
165 2 1 7.49436 38.0029 13.6739 
166 2 1 9.69321 39.2875 13.3262 
167 2 1 11.1232 40.8319 14.8848 
168 2 1 12.5637 42.3162 16.5058 
169 2 1 13.8652 43.2659 18.5301 
170 2 1 15.2563 44.19 20.6383 
171 2 1 15.7833 46.6764 20.6643 
172 2 1 16.0527 49.2342 20.072 
173 2 1 16.5611 51.6553 19.3245 
174 2 1 17.0607 54.027 18.6059 
175 2 1 17.196 56.4495 17.7758 
176 2 1 18.9143 58.2721 17.7237 
177 2 1 20.2817 60.3777 17.4651 
178 2 1 21.5921 0.530715 17.0523 
179 2 1 22.8272 2.87986 16.6564 
180 2 1 23.9337 5.01969 16.5527 
181 2 1 23.6107 7.56741 16.5457 
182 2 1 22.0111 9.05166 15.1836 
183 2 1 19.5969 9.61351 15.722 
184 2 1 17.1102 10.158 16.2591 
185 2 1 15.5734 9.07658 18.053 
186 2 1 16.2159 8.68184 20.5123 
187 2 1 17.7682 8.84059 22.549 
188 2 1 18.4403 8.00689 24.9016 
189 2 1 17.0653 8.84531 26.9218 
190 2 1 16.1646 11.2422 27.2767 
191 2 1 15.4039 12.7306 29.3191 
192 2 1 14.0023 12.2178 31.4437 
193 2 1 13.9177 10.22 33.069 
194 2 1 13.7592 7.79419 34.1162 
195 2 1 13.3121 5.40589 34.9244 
196 2 1 12.821 3.00594 35.4786 
197 2 1 12.4582 0.629844 36.4436 
198 2 1 12.3587 60.5404 37.9761 
199 2 1 10.271 60.1841 39.3625 
200 2 1 8.64112 59.0325 40.9091 
201 2 1 7.77597 56.9832 42.2386 
202 2 1 6.20209 55.5779 43.8317 
203 2 1 4.92258 55.2284 46.0796 
204 2 1 4.43222 54.4447 48.4527 
205 2 1 3.85484 53.7491 50.8928 
206 2 1 3.40101 51.3682 51.7232 
207 2 1 2.82894 49.3576 53.1419 
208 2 1 0.441003 49.3907 54.0799 
209 2 1 60.0384 48.7223 54.5718 
210 2 1 58.1475 50.4854 54.8213 
211 2 1 55.8641 51.4811 54.8256 
212 2 1 53.6454 52.6493 54.7782 
213 2 1 51.779 54.0181 55.9351 
214 2 1 49.8037 55.2068 57.1113 
215 2 1 47.583 56.4318 56.8339 
216 2 1 45.4396 57.8005 56.595 
217 2 1 43.8768 57.034 58.4923 
218 2 1 43.4611 55.9838 60.8481 
219 2 1 44.4429 54.7746 0.929379 
220 2 1 45.4576 53.5624 3.01444 
221 2 1 46.1546 53.0111 5.39638 
222 2 1 46.0495 51.6602 7.67501 
223 2 1 46.6063 52.416 10.1672 
224 2 1 47.0108 53.2872 12.6056 
225 2 1 47.3729 53.6081 15.1027 
226 2 1 47.8037 56.0569 15.4818 
227 2 1 45.925 57.9196 16.052 
228 2 1 44.6007 59.7465 14.9877 
229 2 1 43.8018 61.9252 13.9801 
230 2 1 43.3334 1.67976 12.2617 
231 2 1 43.0831 3.54811 10.3894 
232 2 1 44.0895 5.24798 8.70001 
233 2 1 45.004 4.84579 6.35842 
234 2 1 46.2448 4.38984 4.15689 
235 2 1 46.3586 3.502 1.74531 
236 2 1 46.6955 3.09773 61.2448 
237 2 1 46.5943 2.57425 58.6889 
238 2 1 46.5246 1.43316 56.4008 
239 2 1 47.107 0.0440961 54.3352 
240 2 1 47.5011 60.4696 52.4044 
241 3 1 39.6805 27.9519 24.9175 
242 3 1 38.2874 27.5688 22.8239 
243 3 1 36.8593 27.5865 20.7971 
244 3 1 36.8774 26.7591 18.3431 
245 3 1 36.8534 26.1153 15.8351 
246 3 1 36.7014 27.1438 13.4301 
247 3 1 36.4451 27.7082 10.9635 
248 3 1 34.2146 27.4404 9.67696 
249 3 1 32.2784 26.1574 8.57872 
250 3 1 30.5856 24.5333 7.52034 
251 3 1 28.2708 25.0982 8.49646 
252 3 1 25.8398 24.8966 8.68387 
253 3 1 21.8615 24.8942 8.97425 
254 3 1 19.4159 24.921 9.07176 
255 3 1 16.9321 24.6684 8.79009 
256 3 1 14.2627 24.3803 8.51675 
257 3 1 11.7647 24.1721 7.89247 
258 3 1 9.3321 23.8027 8.41773 
259 3 1 6.9267 23.2196 8.96718 
260 3 1 5.33107 24.4956 10.5499 
261 3 1 4.12429 25.6899 12.4382 
262 3 1 3.03194 26.7129 14.5164 
263 3 1 4.37403 26.7619 16.7592 
264 3 1 5.49396 28.8409 17.8159 
265 3 1 7.38245 29.9143 16.3365 
266 3 1 9.39163 30.995 15.0875 
267 3 1 11.5976 31.8135 13.9655 
268 3 1 12.8788 33.5242 12.625 
269 3 1 14.3741 35.3145 11.5705 
270 3 1 15.1616 36.8961 9.82598 
271 3 1 15.9359 38.5594 8.01715 
272 3 1 15.1465 38.7479 5.54001 
273 3 1 14.0674 39.0295 3.12681 
274 3 1 11.5358 38.7456 2.70506 
275 3 1 9.13292 38.5844 1.74733 
276 3 1 6.72975 38.5336 1.04186 
277 3 1 4.238 38.1926 0.529176 
278 3 1 2.19129 39.4493 1.47466 
279 3 1 61.7929 40.1599 1.47639 
280 3 1 59.3033 40.7493 1.65548 
281 3 1 58.4659 39.0646 3.32744 
282 3 1 57.4188 37.2848 4.94296 
283 3 1 55.9893 36.2709 6.81045 
284 3 1 56.738 34.6689 8.65844 
285 3 1 58.5882 33.1842 9.83144 
286 3 1 60.8769 32.0787 10.1951 
287 3 1 1.00334 30.8047 10.623 
288 3 1 3.4152 30.0109 11.0383 
289 3 1 5.99029 29.5924 11.3901 
290 3 1 6.84584 28.4761 9.2143 
291 3 1 6.46825 27.3923 6.92497 
292 3 1 6.32249 27.2873 4.38779 
293 3 1 4.89483 29.4583 3.9864 
294 3 1 4.33421 31.1447 5.81116 
295 3 1 4.00881 33.1132 7.32249 
296 3 1 3.37791 35.0691 8.84661 
297 3 1 4.47772 37.5564 9.04798 
298 3 1 5.93499 39.4988 9.64974 
299 3 1 7.45982 41.3169 10.4049 
300 3 1 7.16275 43.714 9.40951 
301 3 1 6.79549 45.2128 7.30082 
302 3 1 6.40178 46.8754 5.35294 
303 3 1 4.28516 46.1301 3.98103 
304 3 1 2.39159 45.4456 2.46478 
305 3 1 0.714975 44.9954 0.416633 
306 3 1 61.2196 44.8985 60.3482 
307 3 1 59.822 44.8746 58.2323 
308 3 1 57.8436 44.6414 56.6207 
309 3 1 55.9634 44.9823 55.0195 
310 3 1 54.0318 45.6825 53.4912 
311 3 1 54.2476 47.4552 51.5895 
312 3 1 55.7619 49.3085 50.7751 
313 3 1 58.0863 50.352 50.4202 
314 3 1 60.2058 51.8317 50.8512 
315 3 1 61.8607 53.3448 52.167 
316 3 1 0.955245 54.7055 54.1019 
317 3 1 1.69712 54.7926 56.5626 
318 3 1 2.59399 54.4712 58.9606 
319 3 1 2.50699 54.9942 61.5252 
320 3 1 3.95653 56.6732 0.982491 
321 4 1 47.8703 37.8083 40.892 
322 4 1 49.8228 38.0561 42.4981 
323 4 1 50.9665 40.205 43.3681 
324 4 1 52.605 41.7085 44.6721 
325 4 1 53.9173 43.4194 45.9554 
326 4 1 55.1615 44.6575 47.7284 
327 4 1 57.1135 45.0472 49.3108 
328 4 1 59.104 44.8231 50.8577 
329 4 1 61.1126 44.7604 52.1557 
330 4 1 1.23687 44.6655 53.3649 
331 4 1 3.43838 44.8649 51.9788 
332 4 1 5.32553 43.7307 50.7272 
333 4 1 7.25984 42.3407 49.8114 
334 4 1 9.15303 40.9462 49.1909 
335 4 1 10.4924 39.6435 47.4361 
336 4 1 9.67455 37.8222 45.8442 
337 4 1 8.09929 36.694 44.2055 
338 4 1 7.34454 35.2064 42.3215 
339 4 1 6.47963 33.6255 40.4599 
340 4 1 4.379 34.0692 39.0637 
341 4 1 2.44245 32.4339 38.9721 
342 4 1 -0.0539937 31.7764 38.7696 
343 4 1 59.6225 31.209 38.4711 
344 4 1 57.6574 32.0304 39.972 
345 4 1 57.672 33.1686 42.1739 
346 4 1 57.5331 34.3084 44.4924 
347 4 1 57.2987 34.647 47.006 
348 4 1 57.1482 34.7566 49.502 
349 4 1 57.6093 32.7046 51.0003 
350 4 1 59.6558 31.7825 52.0234 
351 4 1 61.3178 30.1705 50.9358 
352 4 1 0.903397 28.6158 49.7229 
353 4 1 2.52303 27.2017 48.3399 
354 4 1 3.91416 26.0132 46.5203 
355 4 1 4.70971 25.9653 44.0728 
356 4 1 6.38794 25.1331 42.3164 
357 4 1 8.20175 23.6842 41.2336 
358 4 1 9.88698 22.0683 40.3029 
359 4 1 11.6599 20.3856 39.6924 
360 4 1 13.5244 18.7582 39.0752 
361 4 1 15.4399 17.8302 40.5476 
362 4 1 16.8362 17.5513 42.6404 
363 4 1 17.8756 16.614 44.8068 
364 4 1 18.3932 15.3802 46.9969 
365 4 1 18.9326 14.2068 49.2602 
366 4 1 19.8303 13.1744 51.4231 
367 4 1 19.8828 12.4666 53.8249 
368 4 1 18.9173 14.0616 55.6257 
369 4 1 17.4995 15.4844 57.3574 
370 4 1 15.5687 16.4774 58.5178 
371 4 1 13.7702 17.9683 59.5306 
372 4 1 12.7001 19.3446 61.3868 
373 4 1 12.2684 20.758 1.37464 
374 4 1 11.6102 22.3884 3.32027 
375 4 1 13.3086 24.2074 3.87465 
376 4 1 14.8933 26.176 4.14952 
377 4 1 16.7133 28.0653 4.51869 
378 4 1 18.6547 29.7035 4.39104 
379 4 1 20.6862 31.3806 3.98385 
380 4 1 22.6327 33.1431 4.08599 
381 4 1 24.6584 34.7525 4.38242 
382 4 1 27.0586 34.0844 4.79379 
383 4 1 29.433 33.1134 5.18201 
384 4 1 31.6137 31.9557 5.87395 
385 4 1 32.3649 29.532 5.48894 
386 4 1 32.9615 27.5601 4.03753 
387 4 1 34.0041 25.5658 2.70637 
388 4 1 35.8462 25.499 0.815422 
389 4 1 37.7025 25.5425 61.0838 
390 4 1 37.5658 26.8836 58.9285 
391 4 1 37.317 28.2292 56.6334 
392 4 1 36.9965 29.0732 54.2363 
393 4 1 36.9067 30.2372 52.0488 
394 4 1 37.5349 32.7777 52.1148 
395 4 1 38.0545 35.2775 52.0835 
396 4 1 40.4775 35.9295 52.477 
397 4 1 43.0411 36.0613 52.8734 
398 4 1 45.6466 36.644 52.8745 
399 4 1 47.7409 38.2769 53.0099 
400 4 1 49.9769 37.5955 51.993 
401 5 1 5.72809 43.9022 26.1895 
402 5 1 4.37338 45.6923 27.4758 
403 5 1 3.08272 47.5512 28.8187 
404 5 1 1.98408 49.085 30.5271 
405 5 1 1.09076 50.8759 32.0458 
406 5 1 0.32086 52.6243 33.8068 
407 5 1 61.4355 54.1661 35.646 
408 5 1 0.820043 55.2937 37.5832 
409 5 1 1.86764 55.7317 39.9628 
410 5 1 3.489 57.6489 40.6327 
411 5 1 4.40668 59.6687 42.055 
412 5 1 5.18659 61.8173 43.1816 
413 5 1 6.55246 1.66638 44.2833 
414 5 1 7.81491 3.87851 44.8348 
415 5 1 10.0602 5.22019 44.9475 
416 5 1 10.5779 7.46215 43.7193 
417 5 1 11.2654 9.62584 42.443 
418 5 1 9.30715 11.3173 42.7416 
419 5 1 7.40477 13.0194 43.1396 
420 5 1 4.91123 12.5726 42.4431 
421 5 1 2.54084 13.0294 41.8046 
422 5 1 0.146052 13.4041 41.0464 
423 5 1 60.2381 14.1399 39.5534 
424 5 1 58.5784 15.5293 38.1272 
425 5 1 56.5237 16.2852 39.5638 
426 5 1 54.4536 16.9445 40.8104 
427 5 1 53.8527 15.2843 42.7103 
428 5 1 53.5715 13.7542 44.582 
429 5 1 53.2039 12.0039 46.5654 
430 5 1 52.7993 10.4416 48.4896 
431 5 1 52.4127 8.63653 50.1067 
432 5 1 52.5084 6.79645 51.8589 
433 5 1 53.0793 4.68608 53.2691 
434 5 1 52.343 2.36711 52.0953 
435 5 1 51.877 0.251821 50.5453 
436 5 1 52.6763 0.595461 48.1346 
437 5 1 53.3312 1.17831 45.7313 
438 5 1 52.3409 2.95806 44.146 
439 5 1 52.6592 4.49439 42.0833 
440 5 1 50.9554 5.52903 40.4893 
441 5 1 49.2438 6.30563 38.7165 
442 5 1 47.6633 6.70719 36.8159 
443 5 1 45.7806 7.03859 35.097 
444 5 1 44.6861 6.30282 32.932 
445 5 1 43.6369 5.2475 30.7605 
446 5 1 42.4462 4.45389 28.5971 
447 5 1 40.7898 3.76841 26.7769 
448 5 1 39.356 3.17647 24.8363 
449 5 1 40.4592 1.20541 23.5402 
450 5 1 41.221 60.8646 23.0523 
451 5 1 40.8828 58.4218 23.0862 
452 5 1 40.4941 55.8221 22.98 
453 5 1 39.9794 53.4366 22.8023 
454 5 1 37.6457 53.4978 21.7476 
455 5 1 35.1455 53.8552 21.6053 
456 5 1 32.611 53.6237 21.5949 
457 5 1 30.1115 52.9863 21.9465 
458 5 1 27.5856 52.809 22.6436 
459 5 1 25.027 52.7487 23.0715 
460 5 1 23.3105 53.2203 24.806 
461 5 1 21.4462 53.375 26.6432 
462 5 1 20.1469 53.6958 28.8761 
463 5 1 18.9046 53.9551 31.1296 
464 5 1 16.3763 54.4846 31.6505 
465 5 1 14.0204 55.342 32.047 
466 5 1 11.6947 56.1899 32.702 
467 5 1 9.81233 54.3877 33.0161 
468 5 1 8.16906 52.6483 32.1433 
469 5 1 6.48009 51.1499 31.0418 
470 5 1 5.67239 52.2529 28.8139 
471 5 1 5.10874 53.1328 26.5094 
472 5 1 3.98486 54.1245 24.3031 
473 5 1 3.95589 56.5998 23.5369 
474 5 1 4.27302 59.1458 23.225 
475 5 1 3.93725 61.6284 23.2746 
476 5 1 1.77996 0.741443 22.9485 
477 5 1 1.03807 2.98597 23.9539 
478 5 1 0.588039 5.47644 23.895 
479 5 1 62.1582 7.87626 23.2397 
480 5 1 60.9612 8.62828 21.1469 
481 6 1 24.3444 42.5555 34.0857 
482 6 1 23.3103 42.6523 36.385 
483 6 1 21.9967 42.1513 38.6894 
484 6 1 21.5576 41.4847 41.0907 
485 6 1 20.2867 40.52 43.1238 
486 6 1 18.6813 39.2053 44.5064 
487 6 1 16.1033 38.9213 44.0139 
488 6 1 13.6326 38.9461 43.3466 
489 6 1 11.386 40.064 43.1321 
490 6 1 9.07083 40.9676 42.6781 
491 6 1 7.19239 42.3735 41.6436 
492 6 1 5.30255 43.8695 40.7668 
493 6 1 5.362 46.4913 40.7658 
494 6 1 5.37531 49.065 41.0576 
495 6 1 6.21039 51.4527 40.2259 
496 6 1 6.79128 53.7375 39.2831 
497 6 1 5.66121 53.7407 36.9992 
498 6 1 4.49507 54.1136 34.6164 
499 6 1 3.38789 54.5573 32.3266 
500 6 1 2.38029 54.7205 29.9691 
501 6 1 1.80043 55.7774 27.8063 
502 6 1 2.04412 58.3447 27.9039 
503 6 1 2.23136 60.883 27.9134 
504 6 1 3.64083 0.819717 27.2166 
505 6 1 6.15385 0.194168 26.9771 
506 6 1 8.6184 61.8262 26.9167 
507 6 1 10.8821 60.8604 27.372 
508 6 1 13.1194 59.551 27.5896 
509 6 1 13.5987 56.9901 27.7992 
510 6 1 14.0513 54.5355 27.4658 
511 6 1 15.5982 52.6886 26.6077 
512 6 1 17.4445 51.0335 25.7729 
513 6 1 18.4076 51.7445 23.4866 
514 6 1 19.9323 53.4416 22.1057 
515 6 1 21.3789 55.1902 21.0988 
516 6 1 22.6539 57.2726 20.3159 
517 6 1 23.8799 59.515 20.5598 
518 6 1 25.2108 61.699 20.6806 
519 6 1 25.6082 2.15 20.1957 
520 6 1 26.0942 4.57726 19.8469 
521 6 1 26.7708 6.94281 19.3017 
522 6 1 27.8157 9.28685 19.6611 
523 6 1 27.2569 11.4382 21.0061 
524 6 1 26.641 13.5266 22.4359 
525 6 1 26.8304 15.455 24.0629 
526 6 1 25.3716 15.7574 26.1386 
527 6 1 24.1039 15.2616 28.3167 
528 6 1 24.1138 13.2997 29.8774 
529 6 1 23.7237 11.1537 31.3144 
530 6 1 23.4252 9.21904 33.071 
531 6 1 22.6395 7.10039 34.3666 
532 6 1 21.6557 5.11734 35.6147 
533 6 1 22.0402 3.02742 37.2595 
534 6 1 22.6305 1.01378 38.7666 
535 6 1 22.8751 61.8694 41.0071 
536 6 1 21.1922 60.3625 42.2033 
537 6 1 19.7506 59.1587 43.9161 
538 6 1 18.8088 57.933 45.9444 
539 6 1 17.2707 56.6285 47.3336 
540 6 1 15.4573 55.1332 48.4063 
541 6 1 13.7228 54.0564 49.8266 
542 6 1 12.9639 55.1821 52.0362 
543 6 1 12.1344 56.513 54.136 
544 6 1 11.4187 57.5575 56.4361 
545 6 1 10.0964 58.1039 58.5317 
546 6 1 8.94702 59.0532 60.6978 
547 6 1 7.6335 59.8013 0.79131 
548 6 1 6.18087 60.4904 2.74295 
549 6 1 4.74549 61.1742 4.77118 
550 6 1 3.28404 61.8283 6.92453 
551 6 1 1.76238 0.0459009 9.07762 
552 6 1 61.2223 0.22475 9.50521 
553 6 1 58.6898 0.448935 9.80503 
554 6 1 57.36 1.55121 7.87651 
555 6 1 56.5855 2.92028 5.77796 
556 6 1 56.9999 1.61319 3.48223 
557 6 1 56.2177 61.9172 1.74836 
558 6 1 54.9039 60.0757 2.98244 
559 6 1 53.9944 57.9446 4.1611 
560 6 1 53.6447 55.7231 5.53105 
561 7 1 42.068 58.9944 50.9681 
562 7 1 43.4198 57.0162 50.2462 
563 7 1 45.2856 56.5811 48.666 
564 7 1 47.6376 55.8266 47.8954 
565 7 1 49.8949 56.9318 48.5765 
566 7 1 52.1938 57.8381 49.1604 
567 7 1 53.2951 58.0107 51.471 
568 7 1 53.3003 58.0698 54.0504 
569 7 1 53.3611 58.1282 56.5739 
570 7 1 53.0232 58.0804 59.0916 
571 7 1 53.0941 59.8959 60.8365 
572 7 1 51.5115 61.7176 -0.029618 
573 7 1 49.9734 0.474616 1.68754 
574 7 1 49.3775 60.7395 3.3144 
575 7 1 49.7416 58.6934 4.7413 
576 7 1 49.4384 57.2272 6.84093 
577 7 1 50.2157 55.5925 8.5563 
578 7 1 50.701 55.6904 11.1222 
579 7 1 50.3061 57.6843 12.4688 
580 7 1 50.2817 59.824 13.8617 
581 7 1 50.4557 0.325101 14.4136 
582 7 1 48.8598 1.91606 13.4045 
583 7 1 47.5002 3.84485 12.401 
584 7 1 46.9856 6.28919 11.6706 
585 7 1 47.5045 8.17776 10.0909 
586 7 1 48.4195 10.409 9.45065 
587 7 1 50.6905 11.1856 10.1722 
588 7 1 52.7643 12.6786 9.84752 
589 7 1 54.7857 14.1065 9.06549 
590 7 1 56.4318 15.9111 8.47011 
591 7 1 58.0268 17.721 7.70849 
592 7 1 57.2664 19.9237 6.61609 
593 7 1 56.1057 22.0762 5.64937 
594 7 1 53.7205 22.7999 6.06846 
595 7 1 53.0696 24.3602 7.82227 
596 7 1 52.0827 25.8625 9.68414 
597 7 1 50.4039 27.7199 9.98428 
598 7 1 48.7095 29.1889 11.3668 
599 7 1 46.8906 30.6698 12.5253 
600 7 1 44.9983 32.1168 13.3633 
601 7 1 44.6812 31.7865 15.9366 
602 7 1 44.7022 31.3808 18.4463 
603 7 1 43.3651 29.5051 19.6182 
604 7 1 41.988 27.4633 19.8606 
605 7 1 41.0811 25.3379 19.0061 
606 7 1 40.0062 23.3177 17.8652 
607 7 1 40.9725 23.1255 15.5039 
608 7 1 41.9993 22.5086 13.1742 
609 7 1 43.6553 20.6675 12.5438 
610 7 1 45.3452 19.4362 11.0413 
611 7 1 46.6084 18.2325 9.16852 
612 7 1 47.6131 16.6616 7.39237 
613 7 1 48.7871 14.848 5.94001 
614 7 1 49.6556 14.4077 3.65106 
615 7 1 52.1483 13.8532 3.25417 
616 7 1 53.7451 12.411 4.71975 
617 7 1 52.6849 10.3041 5.75891 
618 7 1 51.6374 8.15494 6.64113 
619 7 1 50.5047 5.90137 7.25154 
620 7 1 49.4518 3.59885 7.52693 
621 7 1 47.9801 1.73817 8.39396 
622 7 1 47.5028 61.4294 9.38833 
623 7 1 46.726 59.0108 10.0593 
624 7 1 45.0534 57.379 11.2381 
625 7 1 43.5902 55.9052 12.6745 
626 7 1 42.7392 55.0613 14.8106 
627 7 1 41.8924 54.0126 16.951 
628 7 1 41.0372 55.6693 18.6822 
629 7 1 41.8551 58.0762 18.5383 
630 7 1 42.6786 60.6066 18.5573 
631 7 1 43.1443 1.07529 18.4219 
632 7 1 45.3591 2.28235 18.2887 
633 7 1 47.6007 1.1048 18.1936 
634 7 1 49.2282 61.0911 18.3143 
635 7 1 50.8056 59.1666 18.4377 
636 7 1 52.8031 57.4437 18.2505 
637 7 1 52.2047 55.5638 19.9658 
638 7 1 51.5648 53.0873 20.442 
639 7 1 50.4996 50.773 20.7653 
640 7 1 49.2589 48.6665 21.1179 
641 8 1 58.1669 48.815 23.5594 
642 8 1 57.4504 46.4368 23.3303 
643 8 1 57.4432 43.9373 24.0819 
644 8 1 57.4254 42.86 26.3887 
645 8 1 57.6447 42.4256 28.9573 
646 8 1 57.3575 42.5169 31.5183 
647 8 1 56.8965 43.8516 33.7573 
648 8 1 56.3713 45.2623 35.826 
649 8 1 57.048 46.3145 38.0734 
650 8 1 57.7533 47.2396 40.2798 
651 8 1 57.8454 48.2606 42.5842 
652 8 1 58.2027 48.6996 45.1233 
653 8 1 59.586 50.6839 46.0998 
654 8 1 61.0554 52.6517 46.8259 
655 8 1 61.6052 54.732 48.2519 
656 8 1 61.932 57.0343 49.5488 
657 8 1 61.7393 59.3946 50.7093 
658 8 1 61.7958 61.6942 51.5987 
659 8 1 62.0248 2.10245 52.4176 
660 8 1 0.119319 4.67885 52.6378 
661 8 1 1.3288 6.37252 50.9551 
662 8 1 2.19908 6.463 48.6276 
663 8 1 3.56822 6.72567 46.4693 
664 8 1 4.7983 7.53873 44.2499 
665 8 1 5.97533 8.33644 42.0978 
666 8 1 7.08548 9.19638 39.9147 
667 8 1 8.58615 9.78989 37.8728 
668 8 1 10.192 10.3572 35.8705 
669 8 1 9.91243 12.3703 34.4488 
670 8 1 8.37281 14.2185 33.5419 
671 8 1 5.94725 14.7716 32.8097 
672 8 1 5.58548 15.0404 30.3152 
673 8 1 5.12823 15.7075 27.9341 
674 8 1 6.50126 15.7121 25.7465 
675 8 1 8.71643 15.6829 24.4308 
676 8 1 10.7408 14.3369 23.5239 
677 8 1 11.9187 12.2881 24.5239 
678 8 1 12.8024 10.2104 25.7125 
679 8 1 12.2979 8.84367 27.8185 
680 8 1 11.9358 7.37833 29.8266 
681 8 1 10.0155 7.32986 31.5096 
682 8 1 8.19079 9.08091 31.6244 
683 8 1 5.69217 9.75789 32.0401 
684 8 1 3.17141 10.5429 32.3113 
685 8 1 1.42981 11.2716 30.5804 
686 8 1 61.2933 11.6823 29.4756 
687 8 1 60.0444 10.0568 28.0349 
688 8 1 58.642 8.27012 26.9617 
689 8 1 57.7701 5.87255 26.4532 
690 8 1 57.8725 4.62894 24.2547 
691 8 1 58.3576 4.18405 21.8201 
692 8 1 59.0342 3.87342 19.323 
693 8 1 59.3505 3.31393 16.8489 
694 8 1 59.5222 3.46724 14.305 
695 8 1 59.6091 4.68729 12.1197 
696 8 1 60.036 5.56033 9.73633 
697 8 1 61.1354 7.40495 8.28675 
698 8 1 0.531361 9.02453 7.00758 
699 8 1 2.73766 9.15746 5.66577 
700 8 1 4.81629 8.57762 4.09151 
701 8 1 7.11481 8.37244 3.0303 
702 8 1 8.93606 8.6442 1.29423 
703 8 1 10.8282 7.75999 61.8456 
704 8 1 12.964 8.11544 60.6666 
705 8 1 15.2759 7.28494 60.0292 
706 8 1 17.4633 6.19084 59.5662 
707 8 1 19.8092 5.03674 59.5107 
708 8 1 21.9524 3.66026 59.7983 
709 8 1 23.4884 1.585 60.3908 
710 8 1 25.0528 61.7041 60.4824 
711 8 1 27.4565 60.9679 60.7654 
712 8 1 29.9006 60.215 60.6472 
713 8 1 32.1675 59.4805 59.7461 
714 8 1 32.6666 57.3748 58.4507 
715 8 1 32.9083 54.9362 57.5992 
716 8 1 31.2567 53.1881 57.4307 
717 8 1 30.0729 51.883 59.2041 
718 8 1 28.6371 50.1106 60.1538 
719 8 1 27.1106 48.1932 60.932 
720 8 1 26.6643 47.3409 1.38518 
721 9 1 4.06422 28.8043 23.3477 
722 9 1 6.05364 30.0236 22.3371 
723 9 1 8.49659 29.6032 22.7411 
724 9 1 9.86754 30.6129 24.7847 
725 9 1 10.4993 32.713 26.1298 
726 9 1 9.84975 33.7111 28.4269 
727 9 1 7.73451 33.291 29.8516 
728 9 1 6.39349 33.4766 32.0239 
729 9 1 6.89728 35.2741 33.6075 
730 9 1 5.13435 36.9996 34.1756 
731 9 1 5.65404 39.3211 33.1929 
732 9 1 6.34295 41.525 32.0577 
733 9 1 7.29617 43.4566 30.6608 
734 9 1 8.23111 45.8491 30.8739 
735 9 1 10.0113 46.8848 32.3791 
736 9 1 11.7677 46.6652 34.3391 
737 9 1 13.6443 46.2653 36.0973 
738 9 1 15.1593 45.7523 38.0769 
739 9 1 17.2315 45.2355 39.576 
740 9 1 17.2478 43.9589 41.9037 
741 9 1 15.2707 43.6972 43.3718 
742 9 1 13.3428 43.5704 45.1143 
743 9 1 12.3065 43.991 47.376 
744 9 1 11.2723 45.136 49.364 
745 9 1 10.1311 46.5259 51.215 
746 9 1 8.60362 47.7762 52.9669 
747 9 1 7.1623 48.9708 54.6963 
748 9 1 6.07221 50.364 56.5493 
749 9 1 6.34084 51.9538 58.4752 
750 9 1 6.89084 53.6574 60.3931 
751 9 1 8.09457 54.3 0.595408 
752 9 1 8.93505 52.0919 1.62696 
753 9 1 9.51488 49.8017 2.67602 
754 9 1 11.2235 48.1026 3.6976 
755 9 1 11.7635 47.8634 6.19323 
756 9 1 11.0497 47.4639 8.57143 
757 9 1 10.5135 47.9379 11.0143 
758 9 1 10.461 50.1289 12.3814 
759 9 1 9.70929 52.4921 12.9431 
760 9 1 8.52096 54.5552 13.7489 
761 9 1 7.84353 56.8733 14.8588 
762 9 1 9.32996 58.8362 14.1109 
763 9 1 10.8776 60.8493 13.5498 
764 9 1 12.5648 0.594658 13.0443 
765 9 1 13.4244 2.89198 12.1696 
766 9 1 13.9766 5.35231 11.8037 
767 9 1 14.5116 7.83448 11.0169 
768 9 1 16.6269 9.16535 11.2047 
769 9 1 18.6856 7.70514 11.3827 
770 9 1 20.9178 6.40172 11.6326 
771 9 1 22.9609 4.83763 11.7456 
772 9 1 22.6772 2.33115 11.9475 
773 9 1 22.6044 61.7558 12.3336 
774 9 1 24.1008 60.2584 13.6681 
775 9 1 25.7943 59.8698 15.5304 
776 9 1 27.2234 57.8723 16.4066 
777 9 1 27.5493 57.5414 18.8889 
778 9 1 28.0522 57.3643 21.4117 
779 9 1 28.3955 57.8207 23.8675 
780 9 1 27.0505 57.4079 26.0226 
781 9 1 24.4861 57.6281 25.8684 
782 9 1 21.8369 57.7194 25.4206 
783 9 1 20.6498 59.5815 24.011 
784 9 1 20.2464 61.5988 22.4493 
785 9 1 18.8358 1.19588 20.8512 
786 9 1 17.0937 2.77169 21.8068 
787 9 1 15.6099 4.46446 23.1652 
788 9 1 14.191 5.68362 24.8849 
789 9 1 13.682 4.02128 26.733 
790 9 1 12.8892 3.36286 29.0881 
791 9 1 13.5583 1.23127 30.5074 
792 9 1 14.2368 61.0679 31.7426 
793 9 1 14.4688 59.5226 33.7528 
794 9 1 14.8307 57.9054 35.6752 
795 9 1 16.5884 56.0448 35.9464 
796 9 1 17.9978 53.9515 36.1243 
797 9 1 19.8134 52.2517 35.5052 
798 9 1 22.4099 52.014 35.3435 
799 9 1 24.698 52.3059 36.3026 
800 9 1 27.1658 52.7323 37.2718 
801 10 1 24.3652 25.6799 26.8138 
802 10 1 25.6531 27.9432 27.2262 
803 10 1 27.2464 29.9802 27.5626 
804 10 1 29.192 31.5757 28.1216 
805 10 1 30.4072 33.5269 29.3098 
806 10 1 31.0787 35.846 30.3498 
807 10 1 31.0123 38.1675 31.6821 
808 10 1 29.9791 39.902 33.1825 
809 10 1 28.6555 41.2806 34.8622 
810 10 1 27.9703 42.0146 37.2489 
811 10 1 27.1634 42.089 39.6615 
812 10 1 26.2573 42.64 42.0313 
813 10 1 25.5315 42.8647 44.4889 
814 10 1 23.944 41.2928 45.7478 
815 10 1 22.5585 39.6922 47.2464 
816 10 1 20.8602 38.2486 48.655 
817 10 1 19.1626 36.8641 49.9575 
818 10 1 17.1117 35.636 50.8177 
819 10 1 15.3426 34.2116 52.0683 
820 10 1 14.0298 32.6186 53.6265 
821 10 1 12.2625 33.141 55.2598 
822 10 1 9.65132 33.0376 55.0819 
823 10 1 8.30895 31.1898 53.9458 
824 10 1 7.30199 29.219 52.578 
825 10 1 6.61674 29.517 50.0527 
826 10 1 6.33719 29.9825 47.4708 
827 10 1 6.27922 30.2562 44.9304 
828 10 1 4.0596 30.5109 43.5593 
829 10 1 1.60885 30.0683 43.6516 
830 10 1 61.1279 29.6088 43.6178 
831 10 1 59.3247 29.6051 45.3267 
832 10 1 57.86 29.9253 47.3354 
833 10 1 56.2291 29.403 49.2323 
834 10 1 54.0701 28.5652 50.234 
835 10 1 51.6405 27.6991 50.2896 
836 10 1 49.4618 26.4443 49.8847 
837 10 1 46.8868 26.316 50.0665 
838 10 1 45.7993 24.6668 51.8159 
839 10 1 44.7895 22.7635 53.2705 
840 10 1 44.5254 21.1875 55.3152 
841 10 1 42.2631 21.2971 56.4985 
842 10 1 40.1359 21.4429 57.8509 
843 10 1 37.9292 21.4228 59.1482 
844 10 1 35.8278 20.5627 58.0367 
845 10 1 34.2688 18.7488 57.1864 
846 10 1 32.2524 17.2204 57.4604 
847 10 1 30.3191 15.5793 57.7821 
848 10 1 28.4373 13.8085 58.1596 
849 10 1 28.5416 11.3239 57.6701 
850 10 1 29.855 9.13731 57.1195 
851 10 1 31.1977 6.91286 56.4919 
852 10 1 33.1473 5.29947 56.1194 
853 10 1 33.6014 3.23062 57.6288 
854 10 1 34.6161 2.54153 59.9141 
855 10 1 35.8991 1.83164 62.088 
856 10 1 36.7546 3.5845 1.67571 
857 10 1 37.8554 5.10449 3.375 
858 10 1 38.9333 6.14902 5.4924 
859 10 1 39.1627 5.9666 8.11414 
860 10 1 38.9218 6.96087 10.5976 
861 10 1 39.6896 9.22541 11.5114 
862 10 1 39.3478 11.4724 12.6825 
863 10 1 40.0958 13.6781 11.6786 
864 10 1 40.5446 16.0027 10.6208 
865 10 1 41.1199 18.3795 9.55872 
866 10 1 39.8525 18.3439 7.28955 
867 10 1 38.4999 17.9722 5.10691 
868 10 1 36.685 16.4592 3.95558 
869 10 1 35.0526 15.0505 2.52449 
870 10 1 33.1509 13.9819 1.24167 
871 10 1 31.0603 12.6863 0.548182 
872 10 1 28.7359 11.4885 0.850928 
873 10 1 26.5404 10.2534 0.284293 
874 10 1 24.4746 8.81144 61.6554 
875 10 1 22.1018 9.60693 60.9942 
876 10 1 19.838 10.5322 60.1987 
877 10 1 18.1604 10.4293 58.2133 
878 10 1 15.7687 11.4328 57.7915 
879 10 1 13.7386 12.9766 58.541 
880 10 1 11.3248 14.0245 59.0533 
881 11 1 27.262 45.8634 56.4436 
882 11 1 27.5329 48.0361 55.011 
883 11 1 28.2313 50.5221 54.4391 
884 11 1 27.2635 52.8365 54.2545 
885 11 1 26.2956 54.3067 52.3536 
886 11 1 25.3934 55.8313 50.4717 
887 11 1 24.3731 56.5282 48.2424 
888 11 1 23.55 57.4606 46.0591 
889 11 1 25.449 59.2212 45.8691 
890 11 1 27.3228 60.9739 45.4443 
891 11 1 29.7999 60.3657 44.9056 
892 11 1 31.861 59.2247 43.824 
893 11 1 33.9116 59.1144 42.2161 
894 11 1 35.4354 58.0605 40.4739 
895 11 1 37.0602 56.7585 38.9776 
896 11 1 37.8966 54.5389 38.0718 
897 11 1 38.7894 52.2845 36.9645 
898 11 1 38.0919 49.9485 36.2392 
899 11 1 36.3568 48.2747 35.412 
900 11 1 34.3331 48.9021 36.8886 
901 11 1 32.1548 49.3345 38.1615 
902 11 1 29.9228 49.7676 39.3182 
903 11 1 29.4469 50.1463 41.9202 
904 11 1 28.6975 50.8243 44.359 
905 11 1 26.3642 51.5018 45.2737 
906 11 1 25.2596 52.9085 43.3541 
907 11 1 24.2181 54.5922 41.5749 
908 11 1 23.0351 56.6404 40.5311 